                               Psi4 1.4a2.dev1101

  ==> Input File <==

--------------------------------------------------------------------------
memory 60 GB

molecule h2o_dimer {
0 1
O  -1.551007  -0.114520   0.000000
H  -1.934259   0.762503   0.000000
H  -0.599677   0.040712   0.000000
--
0 1
O   1.350625   0.111469   0.000000
H   1.680398  -0.373741  -0.758561
H   1.680398  -0.373741   0.758561
}

set basis jun-cc-pvdz
energy('sapt2+3', molecule=h2o_dimer)
--------------------------------------------------------------------------

  //              Dimer HF             //
    Molecular point group: c1
  Charge       = 0
  Multiplicity = 1
  Basis Set: JUN-CC-PVDZ
    Blend: JUN-CC-PVDZ
  Basis Set: (JUN-CC-PVDZ AUX)
    Blend: JUN-CC-PVDZ-JKFIT
  @DF-RHF Final Energy:  -152.08141745650900
    Total Energy =                       -152.0814174565090013
  //            Monomer A HF           //
    Molecular point group: c1
  Multiplicity = 1
  Basis Set: JUN-CC-PVDZ
    Blend: JUN-CC-PVDZ
  Basis Set: (JUN-CC-PVDZ AUX)
    Blend: JUN-CC-PVDZ-JKFIT
  @DF-RHF Final Energy:   -76.03737933746621
    Total Energy =                        -76.0373793374662057
  //            Monomer B HF           //
    Molecular point group: c1

    Geometry (in Angstrom), charge = 0, multiplicity = 1:

       Center              X                  Y                   Z               Mass
    ------------   -----------------  -----------------  -----------------  -----------------
      Gh(O)          -1.485163346101    -0.114724564047     0.000000000000    15.994914619570
      Gh(H)          -1.868415346101     0.762298435953     0.000000000000     1.007825032230
      Gh(H)          -0.533833346101     0.040507435953     0.000000000000     1.007825032230
         O            1.416468653899     0.111264435953     0.000000000000    15.994914619570
         H            1.746241653899    -0.373945564047    -0.758561000000     1.007825032230
         H            1.746241653899    -0.373945564047     0.758561000000     1.007825032230

  Charge       = 0
  Multiplicity = 1
  Basis Set: JUN-CC-PVDZ
    Blend: JUN-CC-PVDZ
  Basis Set: (JUN-CC-PVDZ AUX)
    Blend: JUN-CC-PVDZ-JKFIT

    Orbital Energies [Eh]
    ---------------------

    Doubly Occupied:

       1A    -20.577371     2A     -1.355542     3A     -0.718341
       4A     -0.584096     5A     -0.508822

  @DF-RHF Final Energy:   -76.03796420554764

   => Energetics <=

    Nuclear Repulsion Energy =              9.1780389409790679
    One-Electron Energy =                -122.9436632328470154
    Two-Electron Energy =                  37.7276600863203129
    Total Energy =                        -76.0379642055476381

  Dipole Moment: [D]
     X:     1.1808      Y:    -1.7798      Z:    -0.0000     Total:     2.1359

    SAPT Results
  --------------------------------------------------------------------------------------------------------
    Electrostatics                -13.79224256 [mEh]      -8.65476287 [kcal/mol]     -36.21152785 [kJ/mol]
      Elst10,r                    -14.07501652 [mEh]      -8.83220621 [kcal/mol]     -36.95395077 [kJ/mol]
      Elst12,r                     -0.11873231 [mEh]      -0.07450565 [kcal/mol]      -0.31173163 [kJ/mol]
      Elst13,r                      0.40150627 [mEh]       0.25194899 [kcal/mol]       1.05415456 [kJ/mol]

    Exchange                       13.48049419 [mEh]       8.45913782 [kcal/mol]      35.39303262 [kJ/mol]
      Exch10                       11.38684096 [mEh]       7.14535058 [kcal/mol]      29.89614681 [kJ/mol]
      Exch10(S^2)                  11.30441181 [mEh]       7.09362551 [kcal/mol]      29.67972913 [kJ/mol]
      Exch11(S^2)                  -0.07390457 [mEh]      -0.04637582 [kcal/mol]      -0.19403643 [kJ/mol]
      Exch12(S^2)                   2.16755781 [mEh]       1.36016306 [kcal/mol]       5.69092225 [kJ/mol]

    Induction                      -3.75508963 [mEh]      -2.35635432 [kcal/mol]      -9.85898646 [kJ/mol]
      Ind20,r                      -4.51141848 [mEh]      -2.83095784 [kcal/mol]     -11.84472760 [kJ/mol]
      Ind30,r                      -4.99481540 [mEh]      -3.13429399 [kcal/mol]     -13.11388604 [kJ/mol]
      Ind22                        -0.83679779 [mEh]      -0.52509854 [kcal/mol]      -2.19701228 [kJ/mol]
      Exch-Ind20,r                  2.52013685 [mEh]       1.58140975 [kcal/mol]       6.61661838 [kJ/mol]
      Exch-Ind30,r                  4.40304434 [mEh]       2.76295204 [kcal/mol]      11.56019132 [kJ/mol]
      Exch-Ind22                    0.46744609 [mEh]       0.29332685 [kcal/mol]       1.22727954 [kJ/mol]
      delta HF,r (2)               -1.39445630 [mEh]      -0.87503454 [kcal/mol]      -3.66114450 [kJ/mol]
      delta HF,r (3)               -0.80268523 [mEh]      -0.50369259 [kcal/mol]      -2.10744978 [kJ/mol]

    Dispersion                     -2.59557958 [mEh]      -1.62875078 [kcal/mol]      -6.81469326 [kJ/mol]
      Disp20                       -2.57774970 [mEh]      -1.61756236 [kcal/mol]      -6.76788091 [kJ/mol]
      Disp30                        0.03348819 [mEh]       0.02101416 [kcal/mol]       0.08792323 [kJ/mol]
      Disp21                        0.06042419 [mEh]       0.03791675 [kcal/mol]       0.15864368 [kJ/mol]
      Disp22 (SDQ)                 -0.13684541 [mEh]      -0.08587179 [kcal/mol]      -0.35928757 [kJ/mol]
      Disp22 (T)                   -0.29795331 [mEh]      -0.18696853 [kcal/mol]      -0.78227631 [kJ/mol]
      Est. Disp22 (T)              -0.34389282 [mEh]      -0.21579600 [kcal/mol]      -0.90289048 [kJ/mol]
      Exch-Disp20                   0.54859256 [mEh]       0.34424703 [kcal/mol]       1.44032958 [kJ/mol]
      Exch-Disp30                  -0.00543500 [mEh]      -0.00341051 [kcal/mol]      -0.01426958 [kJ/mol]
      Ind-Disp30                   -0.89371628 [mEh]      -0.56081544 [kcal/mol]      -2.34645178 [kJ/mol]
      Exch-Ind-Disp30               0.71955469 [mEh]       0.45152738 [kcal/mol]       1.88919057 [kJ/mol]

  Total HF                         -6.07391350 [mEh]      -3.81143826 [kcal/mol]     -15.94705768 [kJ/mol]
  Total SAPT0                      -8.10307063 [mEh]      -5.08475359 [kcal/mol]     -21.27460901 [kJ/mol]
  Total SAPT2                      -6.49750140 [mEh]      -4.07724368 [kcal/mol]     -17.05918758 [kJ/mol]
  Total SAPT2+                     -6.91781544 [mEh]      -4.34099473 [kcal/mol]     -18.16272194 [kJ/mol]
  Total SAPT2+(3)                  -6.48282099 [mEh]      -4.06803159 [kcal/mol]     -17.02064415 [kJ/mol]
  Total SAPT2+3                    -6.66241758 [mEh]      -4.18073015 [kcal/mol]     -17.49217495 [kJ/mol]

  Special recipe for scaled SAPT0 (see Manual):
    Electrostatics sSAPT0         -14.07501652 [mEh]      -8.83220621 [kcal/mol]     -36.95395077 [kJ/mol]
    Exchange sSAPT0                11.38684096 [mEh]       7.14535058 [kcal/mol]      29.89614681 [kJ/mol]
    Induction sSAPT0               -3.33020622 [mEh]      -2.08973595 [kcal/mol]      -8.74345521 [kJ/mol]
    Dispersion sSAPT0              -2.01706879 [mEh]      -1.26572978 [kcal/mol]      -5.29581338 [kJ/mol]
  Total sSAPT0                     -8.03545057 [mEh]      -5.04232136 [kcal/mol]     -21.09707256 [kJ/mol]
  --------------------------------------------------------------------------------------------------------

*** Psi4 exiting successfully. Buy a developer a beer!
