                               Psi4 1.4a2.dev1101

  ==> Input File <==

--------------------------------------------------------------------------
memory 60 GB

molecule h2o_dimer {
0 1
O  -1.551007  -0.114520   0.000000
H  -1.934259   0.762503   0.000000
H  -0.599677   0.040712   0.000000
--
0 1
O   1.350625   0.111469   0.000000
H   1.680398  -0.373741  -0.758561
H   1.680398  -0.373741   0.758561
}

set basis jun-cc-pvdz
energy('sapt0', molecule=h2o_dimer)
--------------------------------------------------------------------------

  //              Dimer HF             //
    Molecular point group: c1
  Charge       = 0
  Multiplicity = 1
  Basis Set: JUN-CC-PVDZ
    Blend: JUN-CC-PVDZ
  Basis Set: (JUN-CC-PVDZ AUX)
    Blend: JUN-CC-PVDZ-JKFIT
  @DF-RHF Final Energy:  -152.08141745650903
    Total Energy =                       -152.0814174565090298
  //            Monomer A HF           //
    Molecular point group: c1
  Multiplicity = 1
  Basis Set: JUN-CC-PVDZ
    Blend: JUN-CC-PVDZ
  Basis Set: (JUN-CC-PVDZ AUX)
    Blend: JUN-CC-PVDZ-JKFIT
  @DF-RHF Final Energy:   -76.03737933746633
    Total Energy =                        -76.0373793374663336
  //            Monomer B HF           //
    Molecular point group: c1

    Geometry (in Angstrom), charge = 0, multiplicity = 1:

       Center              X                  Y                   Z               Mass
    ------------   -----------------  -----------------  -----------------  -----------------
      Gh(O)          -1.485163346101    -0.114724564047     0.000000000000    15.994914619570
      Gh(H)          -1.868415346101     0.762298435953     0.000000000000     1.007825032230
      Gh(H)          -0.533833346101     0.040507435953     0.000000000000     1.007825032230
         O            1.416468653899     0.111264435953     0.000000000000    15.994914619570
         H            1.746241653899    -0.373945564047    -0.758561000000     1.007825032230
         H            1.746241653899    -0.373945564047     0.758561000000     1.007825032230

  Charge       = 0
  Multiplicity = 1
  Basis Set: JUN-CC-PVDZ
    Blend: JUN-CC-PVDZ
  Basis Set: (JUN-CC-PVDZ AUX)
    Blend: JUN-CC-PVDZ-JKFIT

    Orbital Energies [Eh]
    ---------------------

    Doubly Occupied:

       1A    -20.577371     2A     -1.355542     3A     -0.718341
       4A     -0.584096     5A     -0.508822

  @DF-RHF Final Energy:   -76.03796420554772

   => Energetics <=

    Nuclear Repulsion Energy =              9.1780389409790679
    One-Electron Energy =                -122.9436632328471291
    Two-Electron Energy =                  37.7276600863203413
    Total Energy =                        -76.0379642055477234

  Dipole Moment: [D]
     X:     1.1808      Y:    -1.7798      Z:    -0.0000     Total:     2.1359

    SAPT Results
  --------------------------------------------------------------------------------------------------------
    Electrostatics                -14.07501652 [mEh]      -8.83220621 [kcal/mol]     -36.95395077 [kJ/mol]
      Elst10,r                    -14.07501652 [mEh]      -8.83220621 [kcal/mol]     -36.95395077 [kJ/mol]

    Exchange                       11.38684096 [mEh]       7.14535058 [kcal/mol]      29.89614681 [kJ/mol]
      Exch10                       11.38684096 [mEh]       7.14535058 [kcal/mol]      29.89614681 [kJ/mol]
      Exch10(S^2)                  11.30441181 [mEh]       7.09362551 [kcal/mol]      29.67972913 [kJ/mol]

    Induction                      -3.38573793 [mEh]      -2.12458263 [kcal/mol]      -8.88925372 [kJ/mol]
      Ind20,r                      -4.51141848 [mEh]      -2.83095784 [kcal/mol]     -11.84472760 [kJ/mol]
      Exch-Ind20,r                  2.52013684 [mEh]       1.58140974 [kcal/mol]       6.61661837 [kJ/mol]
      delta HF,r (2)               -1.39445629 [mEh]      -0.87503453 [kcal/mol]      -3.66114449 [kJ/mol]

    Dispersion                     -2.02915714 [mEh]      -1.27331533 [kcal/mol]      -5.32755133 [kJ/mol]
      Disp20                       -2.57774970 [mEh]      -1.61756236 [kcal/mol]      -6.76788091 [kJ/mol]
      Exch-Disp20                   0.54859257 [mEh]       0.34424703 [kcal/mol]       1.44032959 [kJ/mol]
      Disp20 (SS)                  -1.28887485 [mEh]      -0.80878118 [kcal/mol]      -3.38394046 [kJ/mol]
      Disp20 (OS)                  -1.28887485 [mEh]      -0.80878118 [kcal/mol]      -3.38394046 [kJ/mol]
      Exch-Disp20 (SS)              0.31470710 [mEh]       0.19748169 [kcal/mol]       0.82626338 [kJ/mol]
      Exch-Disp20 (OS)              0.23388546 [mEh]       0.14676534 [kcal/mol]       0.61406620 [kJ/mol]

  Total HF                         -6.07391349 [mEh]      -3.81143826 [kcal/mol]     -15.94705768 [kJ/mol]
  Total SAPT0                      -8.10307063 [mEh]      -5.08475359 [kcal/mol]     -21.27460901 [kJ/mol]

  Special recipe for scaled SAPT0 (see Manual):
    Electrostatics sSAPT0         -14.07501652 [mEh]      -8.83220621 [kcal/mol]     -36.95395077 [kJ/mol]
    Exchange sSAPT0                11.38684096 [mEh]       7.14535058 [kcal/mol]      29.89614681 [kJ/mol]
    Induction sSAPT0               -3.33020621 [mEh]      -2.08973595 [kcal/mol]      -8.74345521 [kJ/mol]
    Dispersion sSAPT0              -2.01706879 [mEh]      -1.26572977 [kcal/mol]      -5.29581338 [kJ/mol]
  Total sSAPT0                     -8.03545057 [mEh]      -5.04232136 [kcal/mol]     -21.09707255 [kJ/mol]
  --------------------------------------------------------------------------------------------------------

*** Psi4 exiting successfully. Buy a developer a beer!
